4
	Energy:       0.0386643
C         -4.63216        0.10477        0.00000
O         -3.53071       -0.42304        0.00000
O         -5.71136       -0.49852        0.00000
O         -4.83806        1.32389        0.00000
