5
	Energy:     -89.9055756
C         -4.69184        0.05172       -0.00000
O         -3.50380       -0.35136       -0.00000
O         -5.77800       -0.56960       -0.00000
O         -4.73865        1.37634       -0.00000
H         -3.76140        1.43234       -0.00000
